<?xml version="1.0" encoding="UTF-8"?>

<VTKFile type="UnstructuredGrid" version="0.1">
  <UnstructuredGrid>
    <Piece NumberOfPoints="804" NumberOfCells="1200">
      <Points>
        <DataArray type="Float64" NumberOfComponents="3" format="ascii">
          -2000.0 -2000.0 0.0 -1980.0 -2000.0 0.0 -1960.0 -2000.0 0.0 -1940.0 -2000.0 0.0 -1920.0 -2000.0 0.0 -1900.0 -2000.0 0.0 -1880.0 -2000.0 0.0 -1860.0 -2000.0 0.0 -1840.0 -2000.0 0.0 -1820.0 -2000.0 0.0 -1800.0 -2000.0 0.0 -1780.0 -2000.0 0.0 -1760.0 -2000.0 0.0 -1740.0 -2000.0 0.0 -1720.0 -2000.0 0.0 -1700.0 -2000.0 0.0 -1680.0 -2000.0 0.0 -1660.0 -2000.0 0.0 -1640.0 -2000.0 0.0 -1620.0 -2000.0 0.0 -1600.0 -2000.0 0.0 -1580.0 -2000.0 0.0 -1560.0 -2000.0 0.0 -1540.0 -2000.0 0.0 -1520.0 -2000.0 0.0 -1500.0 -2000.0 0.0 -1480.0 -2000.0 0.0 -1460.0 -2000.0 0.0 -1440.0 -2000.0 0.0 -1420.0 -2000.0 0.0 -1400.0 -2000.0 0.0 -1380.0 -2000.0 0.0 -1360.0 -2000.0 0.0 -1340.0 -2000.0 0.0 -1320.0 -2000.0 0.0 -1300.0 -2000.0 0.0 -1280.0 -2000.0 0.0 -1260.0 -2000.0 0.0 -1240.0 -2000.0 0.0 -1220.0 -2000.0 0.0 -1200.0 -2000.0 0.0 -1180.0 -2000.0 0.0 -1160.0 -2000.0 0.0 -1140.0 -2000.0 0.0 -1120.0 -2000.0 0.0 -1100.0 -2000.0 0.0 -1080.0 -2000.0 0.0 -1060.0 -2000.0 0.0 -1040.0 -2000.0 0.0 -1020.0 -2000.0 0.0 -1000.0 -2000.0 0.0 -980.0 -2000.0 0.0 -960.0 -2000.0 0.0 -940.0 -2000.0 0.0 -920.0 -2000.0 0.0 -900.0 -2000.0 0.0 -880.0 -2000.0 0.0 -860.0 -2000.0 0.0 -840.0 -2000.0 0.0 -820.0 -2000.0 0.0 -800.0 -2000.0 0.0 -780.0 -2000.0 0.0 -760.0 -2000.0 0.0 -740.0 -2000.0 0.0 -720.0 -2000.0 0.0 -700.0 -2000.0 0.0 -680.0 -2000.0 0.0 -660.0 -2000.0 0.0 -640.0 -2000.0 0.0 -620.0 -2000.0 0.0 -600.0 -2000.0 0.0 -580.0 -2000.0 0.0 -560.0 -2000.0 0.0 -540.0 -2000.0 0.0 -520.0 -2000.0 0.0 -500.0 -2000.0 0.0 -480.0 -2000.0 0.0 -460.0 -2000.0 0.0 -440.0 -2000.0 0.0 -420.0 -2000.0 0.0 -400.0 -2000.0 0.0 -380.0 -2000.0 0.0 -360.0 -2000.0 0.0 -340.0 -2000.0 0.0 -320.0 -2000.0 0.0 -300.0 -2000.0 0.0 -280.0 -2000.0 0.0 -260.0 -2000.0 0.0 -240.0 -2000.0 0.0 -220.0 -2000.0 0.0 -200.0 -2000.0 63.18 -180.0 -2000.0 106.21 -160.0 -2000.0 133.3 -140.0 -2000.0 153.16 -120.0 -2000.0 168.36 -100.0 -2000.0 180.1 -80.0 -2000.0 189.01 -60.0 -2000.0 195.48 -40.0 -2000.0 199.75 -20.0 -2000.0 201.97 0.0 -2000.0 202.18 20.0 -2000.0 200.42 40.0 -2000.0 196.61 60.0 -2000.0 190.64 80.0 -2000.0 182.3 100.0 -2000.0 171.24 120.0 -2000.0 156.88 140.0 -2000.0 138.2 160.0 -2000.0 113.09 180.0 -2000.0 75.35 200.0 -2000.0 0.0 220.0 -2000.0 0.0 240.0 -2000.0 0.0 260.0 -2000.0 0.0 280.0 -2000.0 0.0 300.0 -2000.0 0.0 320.0 -2000.0 0.0 340.0 -2000.0 0.0 360.0 -2000.0 0.0 380.0 -2000.0 0.0 400.0 -2000.0 0.0 420.0 -2000.0 0.0 440.0 -2000.0 0.0 460.0 -2000.0 0.0 480.0 -2000.0 0.0 500.0 -2000.0 0.0 520.0 -2000.0 0.0 540.0 -2000.0 0.0 560.0 -2000.0 0.0 580.0 -2000.0 0.0 600.0 -2000.0 0.0 620.0 -2000.0 0.0 640.0 -2000.0 0.0 660.0 -2000.0 0.0 680.0 -2000.0 0.0 700.0 -2000.0 0.0 720.0 -2000.0 0.0 740.0 -2000.0 0.0 760.0 -2000.0 0.0 780.0 -2000.0 0.0 800.0 -2000.0 0.0 820.0 -2000.0 0.0 840.0 -2000.0 0.0 860.0 -2000.0 0.0 880.0 -2000.0 0.0 900.0 -2000.0 0.0 920.0 -2000.0 0.0 940.0 -2000.0 0.0 960.0 -2000.0 0.0 980.0 -2000.0 0.0 1000.0 -2000.0 0.0 1020.0 -2000.0 0.0 1040.0 -2000.0 0.0 1060.0 -2000.0 0.0 1080.0 -2000.0 0.0 1100.0 -2000.0 0.0 1120.0 -2000.0 0.0 1140.0 -2000.0 0.0 1160.0 -2000.0 0.0 1180.0 -2000.0 0.0 1200.0 -2000.0 0.0 1220.0 -2000.0 0.0 1240.0 -2000.0 0.0 1260.0 -2000.0 0.0 1280.0 -2000.0 0.0 1300.0 -2000.0 0.0 1320.0 -2000.0 0.0 1340.0 -2000.0 0.0 1360.0 -2000.0 0.0 1380.0 -2000.0 0.0 1400.0 -2000.0 0.0 1420.0 -2000.0 0.0 1440.0 -2000.0 0.0 1460.0 -2000.0 0.0 1480.0 -2000.0 0.0 1500.0 -2000.0 0.0 1520.0 -2000.0 0.0 1540.0 -2000.0 0.0 1560.0 -2000.0 0.0 1580.0 -2000.0 0.0 1600.0 -2000.0 0.0 1620.0 -2000.0 0.0 1640.0 -2000.0 0.0 1660.0 -2000.0 0.0 1680.0 -2000.0 0.0 1700.0 -2000.0 0.0 1720.0 -2000.0 0.0 1740.0 -2000.0 0.0 1760.0 -2000.0 0.0 1780.0 -2000.0 0.0 1800.0 -2000.0 0.0 1820.0 -2000.0 0.0 1840.0 -2000.0 0.0 1860.0 -2000.0 0.0 1880.0 -2000.0 0.0 1900.0 -2000.0 0.0 1920.0 -2000.0 0.0 1940.0 -2000.0 0.0 1960.0 -2000.0 0.0 1980.0 -2000.0 0.0 2000.0 -2000.0 0.0 -2000.0 2000.0 0.0 -1980.0 2000.0 0.0 -1960.0 2000.0 0.0 -1940.0 2000.0 0.0 -1920.0 2000.0 0.0 -1900.0 2000.0 0.0 -1880.0 2000.0 0.0 -1860.0 2000.0 0.0 -1840.0 2000.0 0.0 -1820.0 2000.0 0.0 -1800.0 2000.0 0.0 -1780.0 2000.0 0.0 -1760.0 2000.0 0.0 -1740.0 2000.0 0.0 -1720.0 2000.0 0.0 -1700.0 2000.0 0.0 -1680.0 2000.0 0.0 -1660.0 2000.0 0.0 -1640.0 2000.0 0.0 -1620.0 2000.0 0.0 -1600.0 2000.0 0.0 -1580.0 2000.0 0.0 -1560.0 2000.0 0.0 -1540.0 2000.0 0.0 -1520.0 2000.0 0.0 -1500.0 2000.0 0.0 -1480.0 2000.0 0.0 -1460.0 2000.0 0.0 -1440.0 2000.0 0.0 -1420.0 2000.0 0.0 -1400.0 2000.0 0.0 -1380.0 2000.0 0.0 -1360.0 2000.0 0.0 -1340.0 2000.0 0.0 -1320.0 2000.0 0.0 -1300.0 2000.0 0.0 -1280.0 2000.0 0.0 -1260.0 2000.0 0.0 -1240.0 2000.0 0.0 -1220.0 2000.0 0.0 -1200.0 2000.0 0.0 -1180.0 2000.0 0.0 -1160.0 2000.0 0.0 -1140.0 2000.0 0.0 -1120.0 2000.0 0.0 -1100.0 2000.0 0.0 -1080.0 2000.0 0.0 -1060.0 2000.0 0.0 -1040.0 2000.0 0.0 -1020.0 2000.0 0.0 -1000.0 2000.0 0.0 -980.0 2000.0 0.0 -960.0 2000.0 0.0 -940.0 2000.0 0.0 -920.0 2000.0 0.0 -900.0 2000.0 0.0 -880.0 2000.0 0.0 -860.0 2000.0 0.0 -840.0 2000.0 0.0 -820.0 2000.0 0.0 -800.0 2000.0 0.0 -780.0 2000.0 0.0 -760.0 2000.0 0.0 -740.0 2000.0 0.0 -720.0 2000.0 0.0 -700.0 2000.0 0.0 -680.0 2000.0 0.0 -660.0 2000.0 0.0 -640.0 2000.0 0.0 -620.0 2000.0 0.0 -600.0 2000.0 0.0 -580.0 2000.0 0.0 -560.0 2000.0 0.0 -540.0 2000.0 0.0 -520.0 2000.0 0.0 -500.0 2000.0 0.0 -480.0 2000.0 0.0 -460.0 2000.0 0.0 -440.0 2000.0 0.0 -420.0 2000.0 0.0 -400.0 2000.0 0.0 -380.0 2000.0 0.0 -360.0 2000.0 0.0 -340.0 2000.0 0.0 -320.0 2000.0 0.0 -300.0 2000.0 0.0 -280.0 2000.0 0.0 -260.0 2000.0 0.0 -240.0 2000.0 0.0 -220.0 2000.0 0.0 -200.0 2000.0 63.18 -180.0 2000.0 106.21 -160.0 2000.0 133.3 -140.0 2000.0 153.16 -120.0 2000.0 168.36 -100.0 2000.0 180.1 -80.0 2000.0 189.01 -60.0 2000.0 195.48 -40.0 2000.0 199.75 -20.0 2000.0 201.97 0.0 2000.0 202.18 20.0 2000.0 200.42 40.0 2000.0 196.61 60.0 2000.0 190.64 80.0 2000.0 182.3 100.0 2000.0 171.24 120.0 2000.0 156.88 140.0 2000.0 138.2 160.0 2000.0 113.09 180.0 2000.0 75.35 200.0 2000.0 0.0 220.0 2000.0 0.0 240.0 2000.0 0.0 260.0 2000.0 0.0 280.0 2000.0 0.0 300.0 2000.0 0.0 320.0 2000.0 0.0 340.0 2000.0 0.0 360.0 2000.0 0.0 380.0 2000.0 0.0 400.0 2000.0 0.0 420.0 2000.0 0.0 440.0 2000.0 0.0 460.0 2000.0 0.0 480.0 2000.0 0.0 500.0 2000.0 0.0 520.0 2000.0 0.0 540.0 2000.0 0.0 560.0 2000.0 0.0 580.0 2000.0 0.0 600.0 2000.0 0.0 620.0 2000.0 0.0 640.0 2000.0 0.0 660.0 2000.0 0.0 680.0 2000.0 0.0 700.0 2000.0 0.0 720.0 2000.0 0.0 740.0 2000.0 0.0 760.0 2000.0 0.0 780.0 2000.0 0.0 800.0 2000.0 0.0 820.0 2000.0 0.0 840.0 2000.0 0.0 860.0 2000.0 0.0 880.0 2000.0 0.0 900.0 2000.0 0.0 920.0 2000.0 0.0 940.0 2000.0 0.0 960.0 2000.0 0.0 980.0 2000.0 0.0 1000.0 2000.0 0.0 1020.0 2000.0 0.0 1040.0 2000.0 0.0 1060.0 2000.0 0.0 1080.0 2000.0 0.0 1100.0 2000.0 0.0 1120.0 2000.0 0.0 1140.0 2000.0 0.0 1160.0 2000.0 0.0 1180.0 2000.0 0.0 1200.0 2000.0 0.0 1220.0 2000.0 0.0 1240.0 2000.0 0.0 1260.0 2000.0 0.0 1280.0 2000.0 0.0 1300.0 2000.0 0.0 1320.0 2000.0 0.0 1340.0 2000.0 0.0 1360.0 2000.0 0.0 1380.0 2000.0 0.0 1400.0 2000.0 0.0 1420.0 2000.0 0.0 1440.0 2000.0 0.0 1460.0 2000.0 0.0 1480.0 2000.0 0.0 1500.0 2000.0 0.0 1520.0 2000.0 0.0 1540.0 2000.0 0.0 1560.0 2000.0 0.0 1580.0 2000.0 0.0 1600.0 2000.0 0.0 1620.0 2000.0 0.0 1640.0 2000.0 0.0 1660.0 2000.0 0.0 1680.0 2000.0 0.0 1700.0 2000.0 0.0 1720.0 2000.0 0.0 1740.0 2000.0 0.0 1760.0 2000.0 0.0 1780.0 2000.0 0.0 1800.0 2000.0 0.0 1820.0 2000.0 0.0 1840.0 2000.0 0.0 1860.0 2000.0 0.0 1880.0 2000.0 0.0 1900.0 2000.0 0.0 1920.0 2000.0 0.0 1940.0 2000.0 0.0 1960.0 2000.0 0.0 1980.0 2000.0 0.0 2000.0 2000.0 0.0 -2000.0 -2000.0 0 -1980.0 -2000.0 0 -1960.0 -2000.0 0 -1940.0 -2000.0 0 -1920.0 -2000.0 0 -1900.0 -2000.0 0 -1880.0 -2000.0 0 -1860.0 -2000.0 0 -1840.0 -2000.0 0 -1820.0 -2000.0 0 -1800.0 -2000.0 0 -1780.0 -2000.0 0 -1760.0 -2000.0 0 -1740.0 -2000.0 0 -1720.0 -2000.0 0 -1700.0 -2000.0 0 -1680.0 -2000.0 0 -1660.0 -2000.0 0 -1640.0 -2000.0 0 -1620.0 -2000.0 0 -1600.0 -2000.0 0 -1580.0 -2000.0 0 -1560.0 -2000.0 0 -1540.0 -2000.0 0 -1520.0 -2000.0 0 -1500.0 -2000.0 0 -1480.0 -2000.0 0 -1460.0 -2000.0 0 -1440.0 -2000.0 0 -1420.0 -2000.0 0 -1400.0 -2000.0 0 -1380.0 -2000.0 0 -1360.0 -2000.0 0 -1340.0 -2000.0 0 -1320.0 -2000.0 0 -1300.0 -2000.0 0 -1280.0 -2000.0 0 -1260.0 -2000.0 0 -1240.0 -2000.0 0 -1220.0 -2000.0 0 -1200.0 -2000.0 0 -1180.0 -2000.0 0 -1160.0 -2000.0 0 -1140.0 -2000.0 0 -1120.0 -2000.0 0 -1100.0 -2000.0 0 -1080.0 -2000.0 0 -1060.0 -2000.0 0 -1040.0 -2000.0 0 -1020.0 -2000.0 0 -1000.0 -2000.0 0 -980.0 -2000.0 0 -960.0 -2000.0 0 -940.0 -2000.0 0 -920.0 -2000.0 0 -900.0 -2000.0 0 -880.0 -2000.0 0 -860.0 -2000.0 0 -840.0 -2000.0 0 -820.0 -2000.0 0 -800.0 -2000.0 0 -780.0 -2000.0 0 -760.0 -2000.0 0 -740.0 -2000.0 0 -720.0 -2000.0 0 -700.0 -2000.0 0 -680.0 -2000.0 0 -660.0 -2000.0 0 -640.0 -2000.0 0 -620.0 -2000.0 0 -600.0 -2000.0 0 -580.0 -2000.0 0 -560.0 -2000.0 0 -540.0 -2000.0 0 -520.0 -2000.0 0 -500.0 -2000.0 0 -480.0 -2000.0 0 -460.0 -2000.0 0 -440.0 -2000.0 0 -420.0 -2000.0 0 -400.0 -2000.0 0 -380.0 -2000.0 0 -360.0 -2000.0 0 -340.0 -2000.0 0 -320.0 -2000.0 0 -300.0 -2000.0 0 -280.0 -2000.0 0 -260.0 -2000.0 0 -240.0 -2000.0 0 -220.0 -2000.0 0 -200.0 -2000.0 0 -180.0 -2000.0 0 -160.0 -2000.0 0 -140.0 -2000.0 0 -120.0 -2000.0 0 -100.0 -2000.0 0 -80.0 -2000.0 0 -60.0 -2000.0 0 -40.0 -2000.0 0 -20.0 -2000.0 0 0.0 -2000.0 0 20.0 -2000.0 0 40.0 -2000.0 0 60.0 -2000.0 0 80.0 -2000.0 0 100.0 -2000.0 0 120.0 -2000.0 0 140.0 -2000.0 0 160.0 -2000.0 0 180.0 -2000.0 0 200.0 -2000.0 0 220.0 -2000.0 0 240.0 -2000.0 0 260.0 -2000.0 0 280.0 -2000.0 0 300.0 -2000.0 0 320.0 -2000.0 0 340.0 -2000.0 0 360.0 -2000.0 0 380.0 -2000.0 0 400.0 -2000.0 0 420.0 -2000.0 0 440.0 -2000.0 0 460.0 -2000.0 0 480.0 -2000.0 0 500.0 -2000.0 0 520.0 -2000.0 0 540.0 -2000.0 0 560.0 -2000.0 0 580.0 -
[...]
      <PointData Vectors="terrain">
        <DataArray type="Float64" Name="terrain" NumberOfComponents="3" format="ascii">
-2000.0 -2000.0 0.0 -1980.0 -2000.0 0.0 -1960.0 -2000.0 0.0 -1940.0 -2000.0 0.0 -1920.0 -2000.0 0.0 -1900.0 -2000.0 0.0 -1880.0 -2000.0 0.0 -1860.0 -2000.0 0.0 -1840.0 -2000.0 0.0 -1820.0 -2000.0 0.0 -1800.0 -2000.0 0.0 -1780.0 -2000.0 0.0 -1760.0 -2000.0 0.0 -1740.0 -2000.0 0.0 -1720.0 -2000.0 0.0 -1700.0 -2000.0 0.0 -1680.0 -2000.0 0.0 -1660.0 -2000.0 0.0 -1640.0 -2000.0 0.0 -1620.0 -2000.0 0.0 -1600.0 -2000.0 0.0 -1580.0 -2000.0 0.0 -1560.0 -2000.0 0.0 -1540.0 -2000.0 0.0 -1520.0 -2000.0 0.0 -1500.0 -2000.0 0.0 -1480.0 -2000.0 0.0 -1460.0 -2000.0 0.0 -1440.0 -2000.0 0.0 -1420.0 -2000.0 0.0 -1400.0 -2000.0 0.0 -1380.0 -2000.0 0.0 -1360.0 -2000.0 0.0 -1340.0 -2000.0 0.0 -1320.0 -2000.0 0.0 -1300.0 -2000.0 0.0 -1280.0 -2000.0 0.0 -1260.0 -2000.0 0.0 -1240.0 -2000.0 0.0 -1220.0 -2000.0 0.0 -1200.0 -2000.0 0.0 -1180.0 -2000.0 0.0 -1160.0 -2000.0 0.0 -1140.0 -2000.0 0.0 -1120.0 -2000.0 0.0 -1100.0 -2000.0 0.0 -1080.0 -2000.0 0.0 -1060.0 -2000.0 0.0 -1040.0 -2000.0 0.0 -1020.0 -2000.0 0.0 -1000.0 -2000.0 0.0 -980.0 -2000.0 0.0 -960.0 -2000.0 0.0 -940.0 -2000.0 0.0 -920.0 -2000.0 0.0 -900.0 -2000.0 0.0 -880.0 -2000.0 0.0 -860.0 -2000.0 0.0 -840.0 -2000.0 0.0 -820.0 -2000.0 0.0 -800.0 -2000.0 0.0 -780.0 -2000.0 0.0 -760.0 -2000.0 0.0 -740.0 -2000.0 0.0 -720.0 -2000.0 0.0 -700.0 -2000.0 0.0 -680.0 -2000.0 0.0 -660.0 -2000.0 0.0 -640.0 -2000.0 0.0 -620.0 -2000.0 0.0 -600.0 -2000.0 0.0 -580.0 -2000.0 0.0 -560.0 -2000.0 0.0 -540.0 -2000.0 0.0 -520.0 -2000.0 0.0 -500.0 -2000.0 0.0 -480.0 -2000.0 0.0 -460.0 -2000.0 0.0 -440.0 -2000.0 0.0 -420.0 -2000.0 0.0 -400.0 -2000.0 0.0 -380.0 -2000.0 0.0 -360.0 -2000.0 0.0 -340.0 -2000.0 0.0 -320.0 -2000.0 0.0 -300.0 -2000.0 0.0 -280.0 -2000.0 0.0 -260.0 -2000.0 0.0 -240.0 -2000.0 0.0 -220.0 -2000.0 0.0 -200.0 -2000.0 63.18 -180.0 -2000.0 106.21 -160.0 -2000.0 133.3 -140.0 -2000.0 153.16 -120.0 -2000.0 168.36 -100.0 -2000.0 180.1 -80.0 -2000.0 189.01 -60.0 -2000.0 195.48 -40.0 -2000.0 199.75 -20.0 -2000.0 201.97 0.0 -2000.0 202.18 20.0 -2000.0 200.42 40.0 -2000.0 196.61 60.0 -2000.0 190.64 80.0 -2000.0 182.3 100.0 -2000.0 171.24 120.0 -2000.0 156.88 140.0 -2000.0 138.2 160.0 -2000.0 113.09 180.0 -2000.0 75.35 200.0 -2000.0 0.0 220.0 -2000.0 0.0 240.0 -2000.0 0.0 260.0 -2000.0 0.0 280.0 -2000.0 0.0 300.0 -2000.0 0.0 320.0 -2000.0 0.0 340.0 -2000.0 0.0 360.0 -2000.0 0.0 380.0 -2000.0 0.0 400.0 -2000.0 0.0 420.0 -2000.0 0.0 440.0 -2000.0 0.0 460.0 -2000.0 0.0 480.0 -2000.0 0.0 500.0 -2000.0 0.0 520.0 -2000.0 0.0 540.0 -2000.0 0.0 560.0 -2000.0 0.0 580.0 -2000.0 0.0 600.0 -2000.0 0.0 620.0 -2000.0 0.0 640.0 -2000.0 0.0 660.0 -2000.0 0.0 680.0 -2000.0 0.0 700.0 -2000.0 0.0 720.0 -2000.0 0.0 740.0 -2000.0 0.0 760.0 -2000.0 0.0 780.0 -2000.0 0.0 800.0 -2000.0 0.0 820.0 -2000.0 0.0 840.0 -2000.0 0.0 860.0 -2000.0 0.0 880.0 -2000.0 0.0 900.0 -2000.0 0.0 920.0 -2000.0 0.0 940.0 -2000.0 0.0 960.0 -2000.0 0.0 980.0 -2000.0 0.0 1000.0 -2000.0 0.0 1020.0 -2000.0 0.0 1040.0 -2000.0 0.0 1060.0 -2000.0 0.0 1080.0 -2000.0 0.0 1100.0 -2000.0 0.0 1120.0 -2000.0 0.0 1140.0 -2000.0 0.0 1160.0 -2000.0 0.0 1180.0 -2000.0 0.0 1200.0 -2000.0 0.0 1220.0 -2000.0 0.0 1240.0 -2000.0 0.0 1260.0 -2000.0 0.0 1280.0 -2000.0 0.0 1300.0 -2000.0 0.0 1320.0 -2000.0 0.0 1340.0 -2000.0 0.0 1360.0 -2000.0 0.0 1380.0 -2000.0 0.0 1400.0 -2000.0 0.0 1420.0 -2000.0 0.0 1440.0 -2000.0 0.0 1460.0 -2000.0 0.0 1480.0 -2000.0 0.0 1500.0 -2000.0 0.0 1520.0 -2000.0 0.0 1540.0 -2000.0 0.0 1560.0 -2000.0 0.0 1580.0 -2000.0 0.0 1600.0 -2000.0 0.0 1620.0 -2000.0 0.0 1640.0 -2000.0 0.0 1660.0 -2000.0 0.0 1680.0 -2000.0 0.0 1700.0 -2000.0 0.0 1720.0 -2000.0 0.0 1740.0 -2000.0 0.0 1760.0 -2000.0 0.0 1780.0 -2000.0 0.0 1800.0 -2000.0 0.0 1820.0 -2000.0 0.0 1840.0 -2000.0 0.0 1860.0 -2000.0 0.0 1880.0 -2000.0 0.0 1900.0 -2000.0 0.0 1920.0 -2000.0 0.0 1940.0 -2000.0 0.0 1960.0 -2000.0 0.0 1980.0 -2000.0 0.0 2000.0 -2000.0 0.0 -2000.0 2000.0 0.0 -1980.0 2000.0 0.0 -1960.0 2000.0 0.0 -1940.0 2000.0 0.0 -1920.0 2000.0 0.0 -1900.0 2000.0 0.0 -1880.0 2000.0 0.0 -1860.0 2000.0 0.0 -1840.0 2000.0 0.0 -1820.0 2000.0 0.0 -1800.0 2000.0 0.0 -1780.0 2000.0 0.0 -1760.0 2000.0 0.0 -1740.0 2000.0 0.0 -1720.0 2000.0 0.0 -1700.0 2000.0 0.0 -1680.0 2000.0 0.0 -1660.0 2000.0 0.0 -1640.0 2000.0 0.0 -1620.0 2000.0 0.0 -1600.0 2000.0 0.0 -1580.0 2000.0 0.0 -1560.0 2000.0 0.0 -1540.0 2000.0 0.0 -1520.0 2000.0 0.0 -1500.0 2000.0 0.0 -1480.0 2000.0 0.0 -1460.0 2000.0 0.0 -1440.0 2000.0 0.0 -1420.0 2000.0 0.0 -1400.0 2000.0 0.0 -1380.0 2000.0 0.0 -1360.0 2000.0 0.0 -1340.0 2000.0 0.0 -1320.0 2000.0 0.0 -1300.0 2000.0 0.0 -1280.0 2000.0 0.0 -1260.0 2000.0 0.0 -1240.0 2000.0 0.0 -1220.0 2000.0 0.0 -1200.0 2000.0 0.0 -1180.0 2000.0 0.0 -1160.0 2000.0 0.0 -1140.0 2000.0 0.0 -1120.0 2000.0 0.0 -1100.0 2000.0 0.0 -1080.0 2000.0 0.0 -1060.0 2000.0 0.0 -1040.0 2000.0 0.0 -1020.0 2000.0 0.0 -1000.0 2000.0 0.0 -980.0 2000.0 0.0 -960.0 2000.0 0.0 -940.0 2000.0 0.0 -920.0 2000.0 0.0 -900.0 2000.0 0.0 -880.0 2000.0 0.0 -860.0 2000.0 0.0 -840.0 2000.0 0.0 -820.0 2000.0 0.0 -800.0 2000.0 0.0 -780.0 2000.0 0.0 -760.0 2000.0 0.0 -740.0 2000.0 0.0 -720.0 2000.0 0.0 -700.0 2000.0 0.0 -680.0 2000.0 0.0 -660.0 2000.0 0.0 -640.0 2000.0 0.0 -620.0 2000.0 0.0 -600.0 2000.0 0.0 -580.0 2000.0 0.0 -560.0 2000.0 0.0 -540.0 2000.0 0.0 -520.0 2000.0 0.0 -500.0 2000.0 0.0 -480.0 2000.0 0.0 -460.0 2000.0 0.0 -440.0 2000.0 0.0 -420.0 2000.0 0.0 -400.0 2000.0 0.0 -380.0 2000.0 0.0 -360.0 2000.0 0.0 -340.0 2000.0 0.0 -320.0 2000.0 0.0 -300.0 2000.0 0.0 -280.0 2000.0 0.0 -260.0 2000.0 0.0 -240.0 2000.0 0.0 -220.0 2000.0 0.0 -200.0 2000.0 63.18 -180.0 2000.0 106.21 -160.0 2000.0 133.3 -140.0 2000.0 153.16 -120.0 2000.0 168.36 -100.0 2000.0 180.1 -80.0 2000.0 189.01 -60.0 2000.0 195.48 -40.0 2000.0 199.75 -20.0 2000.0 201.97 0.0 2000.0 202.18 20.0 2000.0 200.42 40.0 2000.0 196.61 60.0 2000.0 190.64 80.0 2000.0 182.3 100.0 2000.0 171.24 120.0 2000.0 156.88 140.0 2000.0 138.2 160.0 2000.0 113.09 180.0 2000.0 75.35 200.0 2000.0 0.0 220.0 2000.0 0.0 240.0 2000.0 0.0 260.0 2000.0 0.0 280.0 2000.0 0.0 300.0 2000.0 0.0 320.0 2000.0 0.0 340.0 2000.0 0.0 360.0 2000.0 0.0 380.0 2000.0 0.0 400.0 2000.0 0.0 420.0 2000.0 0.0 440.0 2000.0 0.0 460.0 2000.0 0.0 480.0 2000.0 0.0 500.0 2000.0 0.0 520.0 2000.0 0.0 540.0 2000.0 0.0 560.0 2000.0 0.0 580.0 2000.0 0.0 600.0 2000.0 0.0 620.0 2000.0 0.0 640.0 2000.0 0.0 660.0 2000.0 0.0 680.0 2000.0 0.0 700.0 2000.0 0.0 720.0 2000.0 0.0 740.0 2000.0 0.0 760.0 2000.0 0.0 780.0 2000.0 0.0 800.0 2000.0 0.0 820.0 2000.0 0.0 840.0 2000.0 0.0 860.0 2000.0 0.0 880.0 2000.0 0.0 900.0 2000.0 0.0 920.0 2000.0 0.0 940.0 2000.0 0.0 960.0 2000.0 0.0 980.0 2000.0 0.0 1000.0 2000.0 0.0 1020.0 2000.0 0.0 1040.0 2000.0 0.0 1060.0 2000.0 0.0 1080.0 2000.0 0.0 1100.0 2000.0 0.0 1120.0 2000.0 0.0 1140.0 2000.0 0.0 1160.0 2000.0 0.0 1180.0 2000.0 0.0 1200.0 2000.0 0.0 1220.0 2000.0 0.0 1240.0 2000.0 0.0 1260.0 2000.0 0.0 1280.0 2000.0 0.0 1300.0 2000.0 0.0 1320.0 2000.0 0.0 1340.0 2000.0 0.0 1360.0 2000.0 0.0 1380.0 2000.0 0.0 1400.0 2000.0 0.0 1420.0 2000.0 0.0 1440.0 2000.0 0.0 1460.0 2000.0 0.0 1480.0 2000.0 0.0 1500.0 2000.0 0.0 1520.0 2000.0 0.0 1540.0 2000.0 0.0 1560.0 2000.0 0.0 1580.0 2000.0 0.0 1600.0 2000.0 0.0 1620.0 2000.0 0.0 1640.0 2000.0 0.0 1660.0 2000.0 0.0 1680.0 2000.0 0.0 1700.0 2000.0 0.0 1720.0 2000.0 0.0 1740.0 2000.0 0.0 1760.0 2000.0 0.0 1780.0 2000.0 0.0 1800.0 2000.0 0.0 1820.0 2000.0 0.0 1840.0 2000.0 0.0 1860.0 2000.0 0.0 1880.0 2000.0 0.0 1900.0 2000.0 0.0 1920.0 2000.0 0.0 1940.0 2000.0 0.0 1960.0 2000.0 0.0 1980.0 2000.0 0.0 2000.0 2000.0 0.0 -2000.0 -2000.0 0 -1980.0 -2000.0 0 -1960.0 -2000.0 0 -1940.0 -2000.0 0 -1920.0 -2000.0 0 -1900.0 -2000.0 0 -1880.0 -2000.0 0 -1860.0 -2000.0 0 -1840.0 -2000.0 0 -1820.0 -2000.0 0 -1800.0 -2000.0 0 -1780.0 -2000.0 0 -1760.0 -2000.0 0 -1740.0 -2000.0 0 -1720.0 -2000.0 0 -1700.0 -2000.0 0 -1680.0 -2000.0 0 -1660.0 -2000.0 0 -1640.0 -2000.0 0 -1620.0 -2000.0 0 -1600.0 -2000.0 0 -1580.0 -2000.0 0 -1560.0 -2000.0 0 -1540.0 -2000.0 0 -1520.0 -2000.0 0 -1500.0 -2000.0 0 -1480.0 -2000.0 0 -1460.0 -2000.0 0 -1440.0 -2000.0 0 -1420.0 -2000.0 0 -1400.0 -2000.0 0 -1380.0 -2000.0 0 -1360.0 -2000.0 0 -1340.0 -2000.0 0 -1320.0 -2000.0 0 -1300.0 -2000.0 0 -1280.0 -2000.0 0 -1260.0 -2000.0 0 -1240.0 -2000.0 0 -1220.0 -2000.0 0 -1200.0 -2000.0 0 -1180.0 -2000.0 0 -1160.0 -2000.0 0 -1140.0 -2000.0 0 -1120.0 -2000.0 0 -1100.0 -2000.0 0 -1080.0 -2000.0 0 -1060.0 -2000.0 0 -1040.0 -2000.0 0 -1020.0 -2000.0 0 -1000.0 -2000.0 0 -980.0 -2000.0 0 -960.0 -2000.0 0 -940.0 -2000.0 0 -920.0 -2000.0 0 -900.0 -2000.0 0 -880.0 -2000.0 0 -860.0 -2000.0 0 -840.0 -2000.0 0 -820.0 -2000.0 0 -800.0 -2000.0 0 -780.0 -2000.0 0 -760.0 -2000.0 0 -740.0 -2000.0 0 -720.0 -2000.0 0 -700.0 -2000.0 0 -680.0 -2000.0 0 -660.0 -2000.0 0 -640.0 -2000.0 0 -620.0 -2000.0 0 -600.0 -2000.0 0 -580.0 -2000.0 0 -560.0 -2000.0 0 -540.0 -2000.0 0 -520.0 -2000.0 0 -500.0 -2000.0 0 -480.0 -2000.0 0 -460.0 -2000.0 0 -440.0 -2000.0 0 -420.0 -2000.0 0 -400.0 -2000.0 0 -380.0 -2000.0 0 -360.0 -2000.0 0 -340.0 -2000.0 0 -320.0 -2000.0 0 -300.0 -2000.0 0 -280.0 -2000.0 0 -260.0 -2000.0 0 -240.0 -2000.0 0 -220.0 -2000.0 0 -200.0 -2000.0 0 -180.0 -2000.0 0 -160.0 -2000.0 0 -140.0 -2000.0 0 -120.0 -2000.0 0 -100.0 -2000.0 0 -80.0 -2000.0 0 -60.0 -2000.0 0 -40.0 -2000.0 0 -20.0 -2000.0 0 0.0 -2000.0 0 20.0 -2000.0 0 40.0 -2000.0 0 60.0 -2000.0 0 80.0 -2000.0 0 100.0 -2000.0 0 120.0 -2000.0 0 140.0 -2000.0 0 160.0 -2000.0 0 180.0 -2000.0 0 200.0 -2000.0 0 220.0 -2000.0 0 240.0 -2000.0 0 260.0 -2000.0 0 280.0 -2000.0 0 300.0 -2000.0 0 320.0 -2000.0 0 340.0 -2000.0 0 360.0 -2000.0 0 380.0 -2000.0 0 400.0 -2000.0 0 420.0 -2000.0 0 440.0 -2000.0 0 460.0 -2000.0 0 480.0 -2000.0 0 500.0 -2000.0 0 520.0 -2000.0 0 540.0 -2000.0 0 560.0 -2000.0 0 580.0 -2000.0 0 600.0 -2000.0 0 620.0 -2000.0 0 640.0 -2000.0 0 660.0 -2000.0 0 680.0 -2000.0 0 700.0 -2000.0 0 720.0 -2000.0 0 740.0 -2000.0 0 760.0 -2000.0 0 780.0 -2000.0 0 800.0 -2000.0 0 820.0 -2000.0 0 840.0 -2000.0 0 860.0 -2000.0 0 880.0 -2000.0 0 900.0 -2000.0 0 920.0 -2000.0 0 940.0 -2000.0 0 960.0 -2000.0 0 980.0 -2000.0 0 1000.0 -2000.0 0 1020.0 -2000.0 0 1040.0 -2000.0 0 1060.0 -2000.0 0 1080.0 -2000.0 0 1100.0 -2000.0 0 1120.0 -2000.0 0 1140.0 -2000.0 0 1160.0 -2000.0 0 1180.0 -2000.0 0 1200.0 -2000.0 0 1220.0 -2000.0 0 1240.0 -2000.0 0 1260.0 -2000.0 0 1280.0 -2000.0 0 1300.0 -2000.0 0 1320.0 -2000.0 0 1340.0 -2000.0 0 1360.0 -2000.0 0 1380.0 -2000.0 0 1400.0 -2000.0 0 1420.0 -2000.0 0 1440.0 -2000.0 0 1460.0 -2000.0 0 1480.0 -2000.0 0 1500.0 -2000.0 0 1520.0 -2000.0 0 1540.0 -2000.0 0 1560.0 -2000.0 0 1580.0 -2000.0 0 1600.0 -2000.0 0 1620.0 -2000.0 0 1640.0 -2000.0 0 1660.0 -2000.0 0 1680.0 -2000.0 0 1700.0 -2000.0 0 1720.0 -2000.0 0 1740.0 -2000.0 0 1760.0 -2000.0 0 1780.0 -2000.0 0 1800.0 -2000.0 0 1820.0 -2000.0 0 1840.0 -2000.0 0 1860.0 -2000.0 0 1880.0 -2000.0 0 1900.0 -2000.0 0 1920.0 -2000.0 0 1940.0 -2000.0 0 1960.0 -2000.0 0 1980.0 -2000.0 0 2000.0 -2000.0 0 -2000.0 2000.0 0 -1980.0 2000.0 0 -1960.0 2000.0 0 -1940.0 2000.0 0 -1920.0 2000.0 0 -1900.0 2000.0 0 -1880.0 2000.0 0 -1860.0 2000.0 0 -1840.0 2000.0 0 -1820.0 2000.0 0 -1800.0 2000.0 0 -1780.0 2000.0 0 -1760.0 2000.0 0 -1740.0 2000.0 0 -1720.0 2000.0 0 -1700.0 2000.0 0 -1680.0 2000.0 0 -1660.0 2000.0 0 -1640.0 2000.0 0 -1620.0 2000.0 0 -1600.0 2000.0 0 -1580.0 2000.0 0 -1560.0 2000.0 0 -1540.0 2000.0 0 -1520.0 2000.0 0 -1500.0 2000.0 0 -1480.0 2000.0 0 -1460.0 2000.0 0 -1440.0 2000.0 0 -1420.0 2000.0 0 -1400.0 2000.0 0 -1380.0 2000.0 0 -1360.0 2000.0 0 -1340.0 2000.0 0 -1320.0 2000.0 0 -1300.0 2000.0 0 -1280.0 2000.0 0 -1260.0 2000.0 0 -1240.0 2000.0 0 -1220.0 2000.0 0 -1200.0 2000.0 0 -1180.0 2000.0 0 -1160.0 2000.0 0 -1140.0 2000.0 0 -1120.0 2000.0 0 -1100.0 2000.0 0 -1080.0 2000.0 0 -1060.0 2000.0 0 -1040.0 2000.0 0 -1020.0 2000.0 0 -1000.0 2000.0 0 -980.0 2000.0 0 -960.0 2000.0 0 -940.0 2000.0 0 -920.0 2000.0 0 -900.0 2000.0 0 -880.0 2000.0 0 -860.0 2000.0 0 -840.0 2000.0 0 -820.0 2000.0 0 -800.0 2000.0 0 -780.0 2000.0 0 -760.0 2000.0 0 -740.0 2000.0 0 -720.0 2000.0 0 -700.0 2000.0 0 -680.0 2000.0 0 -660.0 2000.0 0 -640.0 2000.0 0 -620.0 2000.0 0 -600.0 2000.0 0 -580.0 2000.0 0 -560.0 2000.0 0 -540.0 2000.0 0 -520.0 2000.0 0 -500.0 2000.0 0 -480.0 2000.0 0 -460.0 2000.0 0 -440.0 2000.0 0 -420.0 2000.0 0 -400.0 2000.0 0 -380.0 2000.0 0 -360.0 2000.0 0 -340.0 2000.0 0 -320.0 2000.0 0 -300.0 2000.0 0 -280.0 2000.0 0 -260.0 2000.0 0 -240.0 2000.0 0 -220.0 2000.0 0 -200.0 2000.0 0 -180.0 2000.0 0 -160.0 2000.0 0 -140.0 2000.0 0 -120.0 2000.0 0 -100.0 2000.0 0 -80.0 2000.0 0 -60.0 2000.0 0 -40.0 2000.0 0 -20.0 2000.0 0 0.0 2000.0 0 20.0 2000.0 0 40.0 2000.0 0 60.0 2000.0 0 80.0 2000.0 0 100.0 2000.0 0 120.0 2000.0 0 140.0 2000.0 0 160.0 2000.0 0 180.0 2000.0 0 200.0 2000.0 0 220.0 2000.0 0 240.0 2000.0 0 260.0 2000.0 0 280.0 2000.0 0 300.0 2000.0 0 320.0 2000.0 0 340.0 2000.0 0 360.0 2000.0 0 380.0 2000.0 0 400.0 2000.0 0 420.0 2000.0 0 440.0 2000.0 0 460.0 2000.0 0 480.0 2000.0 0 500.0 2000.0 0 520.0 2000.0 0 540.0 2000.0 0 560.0 2000.0 0 580.0 2000.0 0 600.0 2000.0 0 620.0 2000.0 0 640.0 2000.0 0 660.0 2000.0 0 680.0 2000.0 0 700.0 2000.0 0 720.0 2000.0 0 740.0 2000.0 0 760.0 2000.0 0 780.0 2000.0 0 800.0 2000.0 0 820.0 2000.0 0 840.0 2000.0 0 860.0 2000.0 0 880.0 2000.0 0 900.0 2000.0 0 920.0 2000.0 0 940.0 2000.0 0 960.0 2000.0 0 980.0 2000.0 0 1000.0 2000.0 0 1020.0 2000.0 0 1040.0 2000.0 0 1060.0 2000.0 0 1080.0 2000.0 0 1100.0 2000.0 0 1120.0 2000.0 0 1140.0 2000.0 0 1160.0 2000.0 0 1180.0 2000.0 0 1200.0 2000.0 0 1220.0 2000.0 0 1240.0 2000.0 0 1260.0 2000.0 0 1280.0 2000.0 0 1300.0 2000.0 0 1320.0 2000.0 0 1340.0 2000.0 0 1360.0 2000.0 0 1380.0 2000.0 0 1400.0 2000.0 0 1420.0 2000.0 0 1440.0 2000.0 0 1460.0 2000.0 0 1480.0 2000.0 0 1500.0 2000.0 0 1520.0 2000.0 0 1540.0 2000.0 0 1560.0 2000.0 0 1580.0 2000.0 0 1600.0 2000.0 0 1620.0 2000.0 0 1640.0 2000.0 0 1660.0 2000.0 0 1680.0 2000.0 0 1700.0 2000.0 0 1720.0 2000.0 0 1740.0 2000.0 0 1760.0 2000.0 0 1780.0 2000.0 0 1800.0 2000.0 0 1820.0 2000.0 0 1840.0 2000.0 0 1860.0 2000.0 0 1880.0 2000.0 0 1900.0 2000.0 0 1920.0 2000.0 0 1940.0 2000.0 0 1960.0 2000.0 0 1980.0 2000.0 0 2000.0 2000.0 0 
        </DataArray>
      </PointData>
    </Piece>
  </UnstructuredGrid>
</VTKFile>
