<?xml version="1.0" encoding="UTF-8"?>

<VTKFile type="UnstructuredGrid" version="0.1">
  <UnstructuredGrid>
    <Piece NumberOfPoints="16482" NumberOfCells="48000">
      <Points>
        <DataArray type="Float64" NumberOfComponents="3" format="ascii">
          -2000.0 -2000.0 0.0 -1980.0 -2000.0 0.0 -1960.0 -2000.0 0.0 -1940.0 -2000.0 0.0 -1920.0 -2000.0 0.0 -1900.0 -2000.0 0.0 -1880.0 -2000.0 0.0 -1860.0 -2000.0 0.0 -1840.0 -2000.0 0.0 -1820.0 -2000.0 0.0 -1800.0 -2000.0 0.0 -1780.0 -2000.0 0.0 -1760.0 -2000.0 0.0 -1740.0 -2000.0 0.0 -1720.0 -2000.0 0.0 -1700.0 -2000.0 0.0 -1680.0 -2000.0 0.0 -1660.0 -2000.0 0.0 -1640.0 -2000.0 0.0 -1620.0 -2000.0 0.0 -1600.0 -2000.0 0.0 -1580.0 -2000.0 0.0 -1560.0 -2000.0 0.0 -1540.0 -2000.0 0.0 -1520.0 -2000.0 0.0 -1500.0 -2000.0 0.0 -1480.0 -2000.0 0.0 -1460.0 -2000.0 0.0 -1440.0 -2000.0 0.0 -1420.0 -2000.0 0.0 -1400.0 -2000.0 0.0 -1380.0 -2000.0 0.0 -1360.0 -2000.0 0.0 -1340.0 -2000.0 0.0 -1320.0 -2000.0 0.0 -1300.0 -2000.0 0.0 -1280.0 -2000.0 0.0 -1260.0 -2000.0 0.0 -1240.0 -2000.0 0.0 -1220.0 -2000.0 0.0 -1200.0 -2000.0 0.0 -1180.0 -2000.0 0.0 -1160.0 -2000.0 0.0 -1140.0 -2000.0 0.0 -1120.0 -2000.0 0.0 -1100.0 -2000.0 0.0 -1080.0 -2000.0 0.0 -1060.0 -2000.0 0.0 -1040.0 -2000.0 0.0 -1020.0 -2000.0 0.0 -1000.0 -2000.0 0.0 -980.0 -2000.0 0.0 -960.0 -2000.0 0.0 -940.0 -2000.0 0.0 -920.0 -2000.0 0.0 -900.0 -2000.0 0.0 -880.0 -2000.0 0.0 -860.0 -2000.0 0.0 -840.0 -2000.0 0.0 -820.0 -2000.0 0.0 -800.0 -2000.0 0.0 -780.0 -2000.0 0.0 -760.0 -2000.0 0.0 -740.0 -2000.0 0.0 -720.0 -2000.0 0.0 -700.0 -2000.0 0.0 -680.0 -2000.0 0.0 -660.0 -2000.0 0.0 -640.0 -2000.0 0.0 -620.0 -2000.0 0.0 -600.0 -2000.0 0.0 -580.0 -2000.0 0.0 -560.0 -2000.0 0.0 -540.0 -2000.0 0.0 -520.0 -2000.0 0.0 -500.0 -2000.0 0.0 -480.0 -2000.0 0.0 -460.0 -2000.0 0.0 -440.0 -2000.0 0.0 -420.0 -2000.0 0.0 -400.0 -2000.0 0.0 -380.0 -2000.0 0.0 -360.0 -2000.0 0.0 -340.0 -2000.0 0.0 -320.0 -2000.0 0.0 -300.0 -2000.0 0.0 -280.0 -2000.0 0.0 -260.0 -2000.0 0.0 -240.0 -2000.0 0.0 -220.0 -2000.0 0.0 -200.0 -2000.0 63.18 -180.0 -2000.0 106.21 -160.0 -2000.0 133.3 -140.0 -2000.0 153.16 -120.0 -2000.0 168.36 -100.0 -2000.0 180.1 -80.0 -2000.0 189.01 -60.0 -2000.0 195.48 -40.0 -2000.0 199.75 -20.0 -2000.0 201.97 0.0 -2000.0 202.18 20.0 -2000.0 200.42 40.0 -2000.0 196.61 60.0 -2000.0 190.64 80.0 -2000.0 182.3 100.0 -2000.0 171.24 120.0 -2000.0 156.88 140.0 -2000.0 138.2 160.0 -2000.0 113.09 180.0 -2000.0 75.35 200.0 -2000.0 0.0 220.0 -2000.0 0.0 240.0 -2000.0 0.0 260.0 -2000.0 0.0 280.0 -2000.0 0.0 300.0 -2000.0 0.0 320.0 -2000.0 0.0 340.0 -2000.0 0.0 360.0 -2000.0 0.0 380.0 -2000.0 0.0 400.0 -2000.0 0.0 420.0 -2000.0 0.0 440.0 -2000.0 0.0 460.0 -2000.0 0.0 480.0 -2000.0 0.0 500.0 -2000.0 0.0 520.0 -2000.0 0.0 540.0 -2000.0 0.0 560.0 -2000.0 0.0 580.0 -2000.0 0.0 600.0 -2000.0 0.0 620.0 -2000.0 0.0 640.0 -2000.0 0.0 660.0 -2000.0 0.0 680.0 -2000.0 0.0 700.0 -2000.0 0.0 720.0 -2000.0 0.0 740.0 -2000.0 0.0 760.0 -2000.0 0.0 780.0 -2000.0 0.0 800.0 -2000.0 0.0 820.0 -2000.0 0.0 840.0 -2000.0 0.0 860.0 -2000.0 0.0 880.0 -2000.0 0.0 900.0 -2000.0 0.0 920.0 -2000.0 0.0 940.0 -2000.0 0.0 960.0 -2000.0 0.0 980.0 -2000.0 0.0 1000.0 -2000.0 0.0 1020.0 -2000.0 0.0 1040.0 -2000.0 0.0 1060.0 -2000.0 0.0 1080.0 -2000.0 0.0 1100.0 -2000.0 0.0 1120.0 -2000.0 0.0 1140.0 -2000.0 0.0 1160.0 -2000.0 0.0 1180.0 -2000.0 0.0 1200.0 -2000.0 0.0 1220.0 -2000.0 0.0 1240.0 -2000.0 0.0 1260.0 -2000.0 0.0 1280.0 -2000.0 0.0 1300.0 -2000.0 0.0 1320.0 -2000.0 0.0 1340.0 -2000.0 0.0 1360.0 -2000.0 0.0 1380.0 -2000.0 0.0 1400.0 -2000.0 0.0 1420.0 -2000.0 0.0 1440.0 -2000.0 0.0 1460.0 -2000.0 0.0 1480.0 -2000.0 0.0 1500.0 -2000.0 0.0 1520.0 -2000.0 0.0 1540.0 -2000.0 0.0 1560.0 -2000.0 0.0 1580.0 -2000.0 0.0 1600.0 -2000.0 0.0 1620.0 -2000.0 0.0 1640.0 -2000.0 0.0 1660.0 -2000.0 0.0 1680.0 -2000.0 0.0 1700.0 -2000.0 0.0 1720.0 -2000.0 0.0 1740.0 -2000.0 0.0 1760.0 -2000.0 0.0 1780.0 -2000.0 0.0 1800.0 -2000.0 0.0 1820.0 -2000.0 0.0 1840.0 -2000.0 0.0 1860.0 -2000.0 0.0 1880.0 -2000.0 0.0 1900.0 -2000.0 0.0 1920.0 -2000.0 0.0 1940.0 -2000.0 0.0 1960.0 -2000.0 0.0 1980.0 -2000.0 0.0 2000.0 -2000.0 0.0 -2000.0 2000.0 0.0 -1980.0 2000.0 0.0 -1960.0 2000.0 0.0 -1940.0 2000.0 0.0 -1920.0 2000.0 0.0 -1900.0 2000.0 0.0 -1880.0 2000.0 0.0 -1860.0 2000.0 0.0 -1840.0 2000.0 0.0 -1820.0 2000.0 0.0 -1800.0 2000.0 0.0 -1780.0 2000.0 0.0 -1760.0 2000.0 0.0 -1740.0 2000.0 0.0 -1720.0 2000.0 0.0 -1700.0 2000.0 0.0 -1680.0 2000.0 0.0 -1660.0 2000.0 0.0 -1640.0 2000.0 0.0 -1620.0 2000.0 0.0 -1600.0 2000.0 0.0 -1580.0 2000.0 0.0 -1560.0 2000.0 0.0 -1540.0 2000.0 0.0 -1520.0 2000.0 0.0 -1500.0 2000.0 0.0 -1480.0 2000.0 0.0 -1460.0 2000.0 0.0 -1440.0 2000.0 0.0 -1420.0 2000.0 0.0 -1400.0 2000.0 0.0 -1380.0 2000.0 0.0 -1360.0 2000.0 0.0 -1340.0 2000.0 0.0 -1320.0 2000.0 0.0 -1300.0 2000.0 0.0 -1280.0 2000.0 0.0 -1260.0 2000.0 0.0 -1240.0 2000.0 0.0 -1220.0 2000.0 0.0 -1200.0 2000.0 0.0 -1180.0 2000.0 0.0 -1160.0 2000.0 0.0 -1140.0 2000.0 0.0 -1120.0 2000.0 0.0 -1100.0 2000.0 0.0 -1080.0 2000.0 0.0 -1060.0 2000.0 0.0 -1040.0 2000.0 0.0 -1020.0 2000.0 0.0 -1000.0 2000.0 0.0 -980.0 2000.0 0.0 -960.0 2000.0 0.0 -940.0 2000.0 0.0 -920.0 2000.0 0.0 -900.0 2000.0 0.0 -880.0 2000.0 0.0 -860.0 2000.0 0.0 -840.0 2000.0 0.0 -820.0 2000.0 0.0 -800.0 2000.0 0.0 -780.0 2000.0 0.0 -760.0 2000.0 0.0 -740.0 2000.0 0.0 -720.0 2000.0 0.0 -700.0 2000.0 0.0 -680.0 2000.0 0.0 -660.0 2000.0 0.0 -640.0 2000.0 0.0 -620.0 2000.0 0.0 -600.0 2000.0 0.0 -580.0 2000.0 0.0 -560.0 2000.0 0.0 -540.0 2000.0 0.0 -520.0 2000.0 0.0 -500.0 2000.0 0.0 -480.0 2000.0 0.0 -460.0 2000.0 0.0 -440.0 2000.0 0.0 -420.0 2000.0 0.0 -400.0 2000.0 0.0 -380.0 2000.0 0.0 -360.0 2000.0 0.0 -340.0 2000.0 0.0 -320.0 2000.0 0.0 -300.0 2000.0 0.0 -280.0 2000.0 0.0 -260.0 2000.0 0.0 -240.0 2000.0 0.0 -220.0 2000.0 0.0 -200.0 2000.0 63.18 -180.0 2000.0 106.21 -160.0 2000.0 133.3 -140.0 2000.0 153.16 -120.0 2000.0 168.36 -100.0 2000.0 180.1 -80.0 2000.0 189.01 -60.0 2000.0 195.48 -40.0 2000.0 199.75 -20.0 2000.0 201.97 0.0 2000.0 202.18 20.0 2000.0 200.42 40.0 2000.0 196.61 60.0 2000.0 190.64 80.0 2000.0 182.3 100.0 2000.0 171.24 120.0 2000.0 156.88 140.0 2000.0 138.2 160.0 2000.0 113.09 180.0 2000.0 75.35 200.0 2000.0 0.0 220.0 2000.0 0.0 240.0 2000.0 0.0 260.0 2000.0 0.0 280.0 2000.0 0.0 300.0 2000.0 0.0 320.0 2000.0 0.0 340.0 2000.0 0.0 360.0 2000.0 0.0 380.0 2000.0 0.0 400.0 2000.0 0.0 420.0 2000.0 0.0 440.0 2000.0 0.0 460.0 2000.0 0.0 480.0 2000.0 0.0 500.0 2000.0 0.0 520.0 2000.0 0.0 540.0 2000.0 0.0 560.0 2000.0 0.0 580.0 2000.0 0.0 600.0 2000.0 0.0 620.0 2000.0 0.0 640.0 2000.0 0.0 660.0 2000.0 0.0 680.0 2000.0 0.0 700.0 2000.0 0.0 720.0 2000.0 0.0 740.0 2000.0 0.0 760.0 2000.0 0.0 780.0 2000.0 0.0 800.0 2000.0 0.0 820.0 2000.0 0.0 840.0 2000.0 0.0 860.0 2000.0 0.0 880.0 2000.0 0.0 900.0 2000.0 0.0 920.0 2000.0 0.0 940.0 2000.0 0.0 960.0 2000.0 0.0 980.0 2000.0 0.0 1000.0 2000.0 0.0 1020.0 2000.0 0.0 1040.0 2000.0 0.0 1060.0 2000.0 0.0 1080.0 2000.0 0.0 1100.0 2000.0 0.0 1120.0 2000.0 0.0 1140.0 2000.0 0.0 1160.0 2000.0 0.0 1180.0 2000.0 0.0 1200.0 2000.0 0.0 1220.0 2000.0 0.0 1240.0 2000.0 0.0 1260.0 2000.0 0.0 1280.0 2000.0 0.0 1300.0 2000.0 0.0 1320.0 2000.0 0.0 1340.0 2000.0 0.0 1360.0 2000.0 0.0 1380.0 2000.0 0.0 1400.0 2000.0 0.0 1420.0 2000.0 0.0 1440.0 2000.0 0.0 1460.0 2000.0 0.0 1480.0 2000.0 0.0 1500.0 2000.0 0.0 1520.0 2000.0 0.0 1540.0 2000.0 0.0 1560.0 2000.0 0.0 1580.0 2000.0 0.0 1600.0 2000.0 0.0 1620.0 2000.0 0.0 1640.0 2000.0 0.0 1660.0 2000.0 0.0 1680.0 2000.0 0.0 1700.0 2000.0 0.0 1720.0 2000.0 0.0 1740.0 2000.0 0.0 1760.0 2000.0 0.0 1780.0 2000.0 0.0 1800.0 2000.0 0.0 1820.0 2000.0 0.0 1840.0 2000.0 0.0 1860.0 2000.0 0.0 1880.0 2000.0 0.0 1900.0 2000.0 0.0 1920.0 2000.0 0.0 1940.0 2000.0 0.0 1960.0 2000.0 0.0 1980.0 2000.0 0.0 2000.0 2000.0 0.0 -2000.0 -2000.0 0.9866628 -1980.0 -2000.0 0.9866628 -1960.0 -2000.0 0.9866628 -1940.0 -2000.0 0.9866628 -1920.0 -2000.0 0.9866628 -1900.0 -2000.0 0.9866628 -1880.0 -2000.0 0.9866628 -1860.0 -2000.0 0.9866628 -1840.0 -2000.0 0.9866628 -1820.0 -2000.0 0.9866628 -1800.0 -2000.0 0.9866628 -1780.0 -2000.0 0.9866628 -1760.0 -2000.0 0.9866628 -1740.0 -2000.0 0.9866628 -1720.0 -2000.0 0.9866628 -1700.0 -2000.0 0.9866628 -1680.0 -2000.0 0.9866628 -1660.0 -2000.0 0.9866628 -1640.0 -2000.0 0.9866628 -1620.0 -2000.0 0.9866628 -1600.0 -2000.0 0.9866628 -1580.0 -2000.0 0.9866628 -1560.0 -2000.0 0.9866628 -1540.0 -2000.0 0.9866628 -1520.0 -2000.0 0.9866628 -1500.0 -2000.0 0.9866628 -1480.0 -2000.0 0.9866628 -1460.0 -2000.0 0.9866628 -1440.0 -2000.0 0.9866628 -1420.0 -2000.0 0.9866628 -1400.0 -2000.0 0.9866628 -1380.0 -2000.0 0.9866628 -1360.0 -2000.0 0.9866628 -1340.0 -2000.0 0.9866628 -1320.0 -2000.0 0.9866628 -1300.0 -2000.0 0.9866628 -1280.0 -2000.0 0.9866628 -1260.0 -2000.0 0.9866628 -1240.0 -2000.0 0.9866628 -1220.0 -2000.0 0.9866628 -1200.0 -2000.0 0.9866628 -1180.0 -2000.0 0.9866628 -1160.0 -2000.0 0.9866628 -1140.0 -2000.0 0.9866628 -1120.0 -2000.0 0.9866628 -1100.0 -2000.0 0.9866628 -1080.0 -2000.0 0.9866628 -1060.0 -2000.0 0.9866628 -1040.0 -2000.0 0.9866628 -1020.0 -2000.0 0.9866628 -1000.0 -2000.0 0.9866628 -980.0 -2000.0 0.9866628 -960.0 -2000.0 0.9866628 -940.0 -2000.0 0.9866628 -920.0 -2000.0 0.9866628 -900.0 -2000.0 0.9866628 -880.0 -2000.0 0.9866628 -860.0 -2000.0 0.9866628 -840.0 -2000.0 0.9866628 -820.0 -2000.0 0.9866628 -800.0 -2000.0 0.9866628 -780.0 -2000.0 0.9866628 -760.0 -2000.0 0.9866628 -740.0 -2000.0 0.9866628 -720.0 -2000.0 0.9866628 -700.0 -2000.0 0.9866628 -680.0 -2000.0 0.9866628 -660.0 -2000.0 0.9866628 -640.0 -2000.0 0.9866628 -620.0 -2000.0 0.9866628 -600.0 -2000.0 0.9866628 -580.0 -2000.0 0.9866628 -560.0 -2000.0 0.9866628 -540.0 -2000.0 0.9866628 -520.0 -2000.0 0.9866628 -500.0 -2000.0 0.9866628 -480.0 -2000.0 0.9866628 -460.0 -2000.0 0.9866628 -440.0 -2000.0 0.9866628 -420.0 -2000.0 0.9866628 -400.0 -2000.0 0.9866628 -380.0 -2000.0 0.9866628 -360.0 -2000.0 0.9866628 -340.0 -2000.0 0.9866628 -320.0 -2000.0 0.9866628 -300.0 -2000.0 0.9866628 -280.0 -
[...]
      <PointData Vectors="u_0">
        <DataArray type="Float64" Name="u_0" NumberOfComponents="3" format="ascii">
4.925 0.0 -0.003 4.731 0.0 0.01 4.807 0.0 0.001 4.795 0.0 0.001 4.798 0.0 0.001 4.797 0.0 0.001 4.797 0.0 0.001 4.797 0.0 0.001 4.797 0.0 0.001 4.797 0.0 0.001 4.797 0.0 0.001 4.797 0.0 0.001 4.796 0.0 0.001 4.796 0.0 0.001 4.796 0.0 0.001 4.796 0.0 0.001 4.795 0.0 0.001 4.795 0.0 0.001 4.795 0.0 0.001 4.794 0.0 0.001 4.794 0.0 0.001 4.793 0.0 0.001 4.793 0.0 0.001 4.792 0.0 0.001 4.792 0.0 0.001 4.791 0.0 0.001 4.79 0.0 0.001 4.789 0.0 0.001 4.789 0.0 0.001 4.788 0.0 0.001 4.787 0.0 0.001 4.785 0.0 0.001 4.784 0.0 0.001 4.783 0.0 0.001 4.782 0.0 0.001 4.78 0.0 0.001 4.778 0.0 0.001 4.777 0.0 0.001 4.775 0.0 0.001 4.772 0.0 0.001 4.77 0.0 0.001 4.768 0.0 0.001 4.765 0.0 0.001 4.762 0.0 0.001 4.759 0.0 0.001 4.755 0.0 0.001 4.751 0.0 0.001 4.747 0.0 0.001 4.743 0.0 0.001 4.738 0.0 0.001 4.733 0.0 0.001 4.727 0.0 0.001 4.721 0.0 0.001 4.714 0.0 0.001 4.706 0.0 0.001 4.698 0.0 0.001 4.69 0.0 0.001 4.68 0.0 0.001 4.669 0.0 0.001 4.658 0.0 0.001 4.645 0.0 0.001 4.631 0.0 0.001 4.616 0.0 0.001 4.599 0.0 0.001 4.581 0.0 0.001 4.56 0.0 0.001 4.538 0.0 0.001 4.513 0.0 0.001 4.485 0.0 0.001 4.454 0.0 0.001 4.42 0.0 0.001 4.381 0.0 0.001 4.338 0.0 0.001 4.289 0.0 0.001 4.235 0.0 0.001 4.172 0.0 0.001 4.102 0.0 0.001 4.021 0.0 0.001 3.927 0.0 0.001 3.819 0.0 0.001 3.692 0.0 0.001 3.542 0.0 0.001 3.363 0.0 0.001 3.145 0.0 0.001 2.876 0.0 0.001 2.533 0.0 0.0 2.076 0.0 0.003 1.471 0.0 -0.015 -0.24 0.0 0.065 -0.52 0.0 2.498 1.457 0.0 3.131 2.577 0.0 3.946 4.21 0.0 4.66 5.727 0.0 4.866 7.015 0.0 4.629 8.065 0.0 4.094 8.894 0.0 3.365 9.513 0.0 2.508 9.93 0.0 1.567 10.148 0.0 0.578 10.168 0.0 -0.428 9.989 0.0 -1.422 9.612 0.0 -2.373 9.033 0.0 -3.245 8.248 0.0 -3.997 7.246 0.0 -4.562 6.016 0.0 -4.838 4.572 0.0 -4.685 2.996 0.0 -4.036 1.824 0.0 -3.235 -0.526 0.0 -2.733 -0.767 0.0 -0.081 1.39 0.0 0.057 1.948 0.0 -0.008 2.454 0.0 0.002 2.814 0.0 0.001 3.096 0.0 0.001 3.323 0.0 0.001 3.509 0.0 0.001 3.664 0.0 0.001 3.795 0.0 0.001 3.907 0.0 0.001 4.003 0.0 0.001 4.086 0.0 0.001 4.159 0.0 0.001 4.223 0.0 0.001 4.279 0.0 0.001 4.329 0.0 0.001 4.373 0.0 0.001 4.412 0.0 0.001 4.447 0.0 0.001 4.479 0.0 0.001 4.507 0.0 0.001 4.533 0.0 0.001 4.556 0.0 0.001 4.576 0.0 0.001 4.595 0.0 0.001 4.612 0.0 0.001 4.628 0.0 0.001 4.642 0.0 0.001 4.655 0.0 0.001 4.667 0.0 0.001 4.678 0.0 0.001 4.688 0.0 0.001 4.697 0.0 0.001 4.705 0.0 0.001 4.712 0.0 0.001 4.719 0.0 0.001 4.726 0.0 0.001 4.732 0.0 0.001 4.737 0.0 0.001 4.742 0.0 0.001 4.746 0.0 0.001 4.751 0.0 0.001 4.755 0.0 0.001 4.758 0.0 0.001 4.761 0.0 0.001 4.764 0.0 0.001 4.767 0.0 0.001 4.77 0.0 0.001 4.772 0.0 0.001 4.774 0.0 0.001 4.776 0.0 0.001 4.778 0.0 0.001 4.78 0.0 0.001 4.781 0.0 0.001 4.783 0.0 0.001 4.784 0.0 0.001 4.785 0.0 0.001 4.787 0.0 0.001 4.788 0.0 0.001 4.789 0.0 0.001 4.789 0.0 0.001 4.79 0.0 0.001 4.791 0.0 0.001 4.792 0.0 0.001 4.792 0.0 0.001 4.793 0.0 0.001 4.794 0.0 0.001 4.794 0.0 0.001 4.794 0.0 0.001 4.795 0.0 0.001 4.795 0.0 0.001 4.796 0.0 0.001 4.796 0.0 0.001 4.796 0.0 0.001 4.797 0.0 0.001 4.797 0.0 0.001 4.797 0.0 0.001 4.797 0.0 0.001 4.797 0.0 0.001 4.798 0.0 0.001 4.798 0.0 0.001 4.798 0.0 0.001 4.798 0.0 0.001 4.798 0.0 0.001 4.798 0.0 0.001 4.797 0.0 0.001 4.808 0.0 0.001 4.741 0.0 0.001 4.924 0.0 -0.016 4.925 0.0 -0.003 4.731 0.0 0.01 4.807 0.0 0.001 4.795 0.0 0.001 4.798 0.0 0.001 4.797 0.0 0.001 4.797 0.0 0.001 4.797 0.0 0.001 4.797 0.0 0.001 4.797 0.0 0.001 4.797 0.0 0.001 4.797 0.0 0.001 4.796 0.0 0.001 4.796 0.0 0.001 4.796 0.0 0.001 4.796 0.0 0.001 4.795 0.0 0.001 4.795 0.0 0.001 4.795 0.0 0.001 4.794 0.0 0.001 4.794 0.0 0.001 4.793 0.0 0.001 4.793 0.0 0.001 4.792 0.0 0.001 4.792 0.0 0.001 4.791 0.0 0.001 4.79 0.0 0.001 4.789 0.0 0.001 4.789 0.0 0.001 4.788 0.0 0.001 4.787 0.0 0.001 4.785 0.0 0.001 4.784 0.0 0.001 4.783 0.0 0.001 4.782 0.0 0.001 4.78 0.0 0.001 4.778 0.0 0.001 4.777 0.0 0.001 4.775 0.0 0.001 4.772 0.0 0.001 4.77 0.0 0.001 4.768 0.0 0.001 4.765 0.0 0.001 4.762 0.0 0.001 4.759 0.0 0.001 4.755 0.0 0.001 4.751 0.0 0.001 4.747 0.0 0.001 4.743 0.0 0.001 4.738 0.0 0.001 4.733 0.0 0.001 4.727 0.0 0.001 4.721 0.0 0.001 4.714 0.0 0.001 4.706 0.0 0.001 4.698 0.0 0.001 4.69 0.0 0.001 4.68 0.0 0.001 4.669 0.0 0.001 4.658 0.0 0.001 4.645 0.0 0.001 4.631 0.0 0.001 4.616 0.0 0.001 4.599 0.0 0.001 4.581 0.0 0.001 4.56 0.0 0.001 4.538 0.0 0.001 4.513 0.0 0.001 4.485 0.0 0.001 4.454 0.0 0.001 4.42 0.0 0.001 4.381 0.0 0.001 4.338 0.0 0.001 4.289 0.0 0.001 4.235 0.0 0.001 4.172 0.0 0.001 4.102 0.0 0.001 4.021 0.0 0.001 3.927 0.0 0.001 3.819 0.0 0.001 3.692 0.0 0.001 3.542 0.0 0.001 3.363 0.0 0.001 3.145 0.0 0.001 2.876 0.0 0.001 2.533 0.0 0.0 2.076 0.0 0.003 1.471 0.0 -0.015 -0.24 0.0 0.065 -0.52 0.0 2.498 1.457 0.0 3.131 2.577 0.0 3.946 4.21 0.0 4.66 5.727 0.0 4.866 7.015 0.0 4.629 8.065 0.0 4.094 8.894 0.0 3.365 9.513 0.0 2.508 9.93 0.0 1.567 10.148 0.0 0.578 10.168 0.0 -0.428 9.989 0.0 -1.422 9.612 0.0 -2.373 9.033 0.0 -3.245 8.248 0.0 -3.997 7.246 0.0 -4.562 6.016 0.0 -4.838 4.572 0.0 -4.685 2.996 0.0 -4.036 1.824 0.0 -3.235 -0.526 0.0 -2.733 -0.767 0.0 -0.081 1.39 0.0 0.057 1.948 0.0 -0.008 2.454 0.0 0.002 2.814 0.0 0.001 3.096 0.0 0.001 3.323 0.0 0.001 3.509 0.0 0.001 3.664 0.0 0.001 3.795 0.0 0.001 3.907 0.0 0.001 4.003 0.0 0.001 4.086 0.0 0.001 4.159 0.0 0.001 4.223 0.0 0.001 4.279 0.0 0.001 4.329 0.0 0.001 4.373 0.0 0.001 4.412 0.0 0.001 4.447 0.0 0.001 4.479 0.0 0.001 4.507 0.0 0.001 4.533 0.0 0.001 4.556 0.0 0.001 4.576 0.0 0.001 4.595 0.0 0.001 4.612 0.0 0.001 4.628 0.0 0.001 4.642 0.0 0.001 4.655 0.0 0.001 4.667 0.0 0.001 4.678 0.0 0.001 4.688 0.0 0.001 4.697 0.0 0.001 4.705 0.0 0.001 4.712 0.0 0.001 4.719 0.0 0.001 4.726 0.0 0.001 4.732 0.0 0.001 4.737 0.0 0.001 4.742 0.0 0.001 4.746 0.0 0.001 4.751 0.0 0.001 4.755 0.0 0.001 4.758 0.0 0.001 4.761 0.0 0.001 4.764 0.0 0.001 4.767 0.0 0.001 4.77 0.0 0.001 4.772 0.0 0.001 4.774 0.0 0.001 4.776 0.0 0.001 4.778 0.0 0.001 4.78 0.0 0.001 4.781 0.0 0.001 4.783 0.0 0.001 4.784 0.0 0.001 4.785 0.0 0.001 4.787 0.0 0.001 4.788 0.0 0.001 4.789 0.0 0.001 4.789 0.0 0.001 4.79 0.0 0.001 4.791 0.0 0.001 4.792 0.0 0.001 4.792 0.0 0.001 4.793 0.0 0.001 4.794 0.0 0.001 4.794 0.0 0.001 4.794 0.0 0.001 4.795 0.0 0.001 4.795 0.0 0.001 4.796 0.0 0.001 4.796 0.0 0.001 4.796 0.0 0.001 4.797 0.0 0.001 4.797 0.0 0.001 4.797 0.0 0.001 4.797 0.0 0.001 4.797 0.0 0.001 4.798 0.0 0.001 4.798 0.0 0.001 4.798 0.0 0.001 4.798 0.0 0.001 4.798 0.0 0.001 4.798 0.0 0.001 4.797 0.0 0.001 4.808 0.0 0.001 4.741 0.0 0.001 4.924 0.0 -0.016 4.903 0.0 -0.004 4.747 0.0 0.009 4.811 0.0 0.004 4.795 0.0 0.004 4.797 0.0 0.004 4.797 0.0 0.004 4.797 0.0 0.004 4.796 0.0 0.004 4.796 0.0 0.004 4.796 0.0 0.004 4.796 0.0 0.004 4.796 0.0 0.004 4.796 0.0 0.004 4.795 0.0 0.004 4.795 0.0 0.004 4.795 0.0 0.004 4.794 0.0 0.004 4.794 0.0 0.004 4.794 0.0 0.004 4.793 0.0 0.004 4.793 0.0 0.004 4.792 0.0 0.004 4.792 0.0 0.004 4.791 0.0 0.004 4.791 0.0 0.004 4.79 0.0 0.004 4.789 0.0 0.004 4.789 0.0 0.004 4.788 0.0 0.004 4.787 0.0 0.004 4.786 0.0 0.004 4.785 0.0 0.004 4.783 0.0 0.004 4.782 0.0 0.004 4.781 0.0 0.004 4.779 0.0 0.004 4.777 0.0 0.004 4.776 0.0 0.004 4.774 0.0 0.004 4.772 0.0 0.004 4.769 0.0 0.004 4.767 0.0 0.004 4.764 0.0 0.004 4.761 0.0 0.004 4.758 0.0 0.004 4.754 0.0 0.004 4.751 0.0 0.004 4.746 0.0 0.004 4.742 0.0 0.004 4.737 0.0 0.004 4.732 0.0 0.004 4.726 0.0 0.004 4.72 0.0 0.004 4.713 0.0 0.004 4.706 0.0 0.004 4.697 0.0 0.004 4.689 0.0 0.004 4.679 0.0 0.004 4.668 0.0 0.004 4.657 0.0 0.004 4.644 0.0 0.004 4.63 0.0 0.004 4.615 0.0 0.004 4.598 0.0 0.004 4.58 0.0 0.004 4.559 0.0 0.004 4.537 0.0 0.005 4.512 0.0 0.005 4.484 0.0 0.005 4.453 0.0 0.005 4.419 0.0 0.005 4.38 0.0 0.005 4.337 0.0 0.005 4.288 0.0 0.006 4.234 0.0 0.006 4.171 0.0 0.006 4.101 0.0 0.006 4.02 0.0 0.007 3.926 0.0 0.007 3.818 0.0 0.008 3.691 0.0 0.009 3.541 0.0 0.01 3.362 0.0 0.011 3.145 0.0 0.013 2.876 0.0 0.015 2.531 0.0 0.019 2.08 0.0 0.028 1.482 0.0 0.027 -0.289 0.0 0.104 -0.323 0.0 2.456 1.565 0.0 3.088 2.693 0.0 3.925 4.289 0.0 4.638 5.765 0.0 4.848 7.022 0.0 4.617 8.051 0.0 4.089 8.866 0.0 3.369 9.478 0.0 2.523 9.891 0.0 1.594 10.108 0.0 0.617 10.131 0.0 -0.379 9.959 0.0 -1.363 9.591 0.0 -2.307 9.025 0.0 -3.177 8.254 0.0 -3.931 7.265 0.0 -4.506 6.045 0.0 -4.806 4.59 0.0 -4.689 2.972 0.0 -4.072 1.773 0.0 -3.258 -0.551 0.0 -2.817 -0.714 0.0 -0.161 1.385 0.0 -0.001 1.963 0.0 -0.029 2.458 0.0 -0.016 2.818 0.0 -0.011 3.099 0.0 -0.008 3.325 0.0 -0.006 3.51 0.0 -0.005 3.665 0.0 -0.003 3.796 0.0 -0.002 3.907 0.0 -0.001 4.003 0.0 -0.001 4.086 0.0 -0.0 4.159 0.0 0.0 4.223 0.0 0.001 4.279 0.0 0.001 4.328 0.0 0.001 4.372 0.0 0.002 4.412 0.0 0.002 4.447 0.0 0.002 4.478 0.0 0.002 4.506 0.0 0.002 4.532 0.0 0.002 4.555 0.0 0.003 4.576 0.0 0.003 4.595 0.0 0.003 4.612 0.0 0.003 4.627 0.0 0.003 4.642 0.0 0.003 4.654 0.0 0.003 4.666 0.0 0.003 4.677 0.0 0.003 4.687 0.0 0.003 4.696 0.0 0.003 4.704 0.0 0.003 4.712 0.0 0.003 4.719 0.0 0.003 4.725 0.0 0.003 4.731 0.0 0.003 4.736 0.0 0.003 4.741 0.0 0.003 4.746 0.0 0.004 4.75 0.0 0.004 4.754 0.0 0.004 4.757 0.0 0.004 4.76 0.0 0.004 4.763 0.0 0.004 4.766 0.0 0.004 4.769 0.0 0.004 4.771 0.0 0.004 4.773 0.0 0.004 4.775 0.0 0.004 4.777 0.0 0.004 4.779 0.0 0.004 4.78 0.0 0.004 4.782 0.0 0.004 4.783 0.0 0.004 4.784 0.0 0.004 4.786 0.0 0.004 4.787 0.0 0.004 4.788 0.0 0.004 4.789 0.0 0.004 4.789 0.0 0.004 4.79 0.0 0.004 4.791 0.0 0.004 4.791 0.0 0.004 4.792 0.0 0.004 4.793 0.0 0.004 4.793 0.0 0.004 4.794 0.0 0.004 4.794 0.0 0.004 4.794 0.0 0.004 4.795 0.0 0.004 4.795 0.0 0.004 4.795 0.0 0.004 4.796 0.0 0.004 4.796 0.0 0.004 4.796 0.0 0.004 4.796 0.0 0.004 4.796 0.0 0.004 4.797 0.0 0.004 4.797 0.0 0.004 4.797 0.0 0.004 4.797 0.0 0.004 4.797 0.0 0.004 4.797 0.0 0.004 4.796 0.0 0.004 4.812 0.0 0.003 4.748 0.0 0.004 4.898 0.0 -0.009 4.903 0.0 -0.004 4.747 0.0 0.009 4.811 0.0 0.004 4.795 0.0 0.004 4.797 0.0 0.004 4.797 0.0 0.004 4.797 0.0 0.004 4.796 0.0 0.004 4.796 0.0 0.004 4.796 0.0 0.004 4.796 0.0 0.004 4.796 0.0 0.004 4.796 0.0 0.004 4.795 0.0 0.004 4.795 0.0 0.004 4.795 0.0 0.004 4.794 0.0 0.004 4.794 0.0 0.004 4.794 0.0 0.004 4.793 0.0 0.004 4.793 0.0 0.004 4.792 0.0 0.004 4.792 0.0 0.004 4.791 0.0 0.004 4.791 0.0 0.004 4.79 0.0 0.004 4.789 0.0 0.004 4.789 0.0 0.004 4.788 0.0 0.004 4.787 0.0 0.004 4.786 0.0 0.004 4.785 0.0 0.004 4.783 0.0 0.004 4.782 0.0 0.004 4.781 0.0 0.004 4.779 0.0 0.004 4.777 0.0 0.004 4.776 0.0 0.004 4.774 0.0 0.004 4.772 0.0 0.004 4.769 0.0 0.004 4.767 0.0 0.004 4.764 0.0 0.004 4.761 0.0 0.004 4.758 0.0 0.004 4.754 0.0 0.004 4.751 0.0 0.004 4.746 0.0 0.004 4.742 0.0 0.004 4.737 0.0 0.004 4.732 0.0 0.004 4.726 0.0 0.004 4.72 0.0 0.004 4.713 0.0 0.004 4.706 0.0 0.004 4.697 0.0 0.004 4.689 0.0 0.004 4.679 0.0 0.004 4.668 0.0 0.004 4.657 0.0 0.004 4.644 0.0 0.004 4.63 0.0 0.004 4.615 0.0 0.004 4.598 0.0 0.004 4.58 0.0 0.004 4.559 0.0 0.004 4.537 0.0 0.005 4.512 0.0 0.005 4.484 0.0 0.005 4.453 0.0 0.005 4.419 0.0 0.005 4.38 0.0 0.005 4.337 0.0 0.005 4.288 0.0 0.006 4.234 0.0 0.006 4.171 0.0 0.006 4.101 0.0 0.006 4.02 0.0 0.007 3.926 0.0 0.007 3.818 0.0 0.008 3.691 0.0 0.009 3.541 0.0 0.01 3.362 0.0 0.011 3.145 0.0 0.013 2.876 0.0 0.015 2.531 0.0 0.019 2.08 0.0 0.028 1.482 0.0 0.027 -0.289 0.0 0.104 -0.323 0.0 2.456 1.565 0.0 3.088 2.693 0.0 3.925 4.289 0.0 4.638 5.765 0.0 4.848 7.022 0.0 4.617 8.051 0.0 4.089 8.866 0.0 3.369 9.478 0.0 2.523 9.891 0.0 1.594 10.108 0.0 0.617 10.131 0.0 -0.379 9.959 0.0 -1.363 9.591 0.0 -2.307 9.025 0.0 -3.177 8.254 0.0 -3.931 7.265 0.0 -4.506 6.045 0.0 -4.806 4.59 0.0 -4.689 2.972 0.0 -4.072 1.773 0.0 -3.258 -0.551 0.0 -2.817 -0.714 0.0 -0.161 1.385 0.0 -0.001 1.963 0.0 -0.029 2.458 0.0 -0.016 2.818 0.0 -0.011 3.099 0.0 -0.008 3.325 0.0 -0.006 3.51 0.0 -0.005 3.665 0.0 -0.003 3.796 0.0 -0.002 3.907 0.0 -0.001 4.003 0.0 -0.001 4.086 0.0 -0.0 4.159 0.0 0.0 4.223 0.0 0.001 4.279 0.0 0.001 4.328 0.0 0.001 4.372 0.0 0.002 4.412 0.0 0.002 4.447 0.0 0.002 4.478 0.0 0.002 4.506 0.0 0.002 4.532 0.0 0.002 4.555 0.0 0.003 4.576 0.0 0.003 4.595 0.0 0.003 4.612 0.0 0.003 4.627 0.0 0.003 4.642 0.0 0.003 4.654 0.0 0.003 4.666 0.0 0.003 4.677 0.0 0.003 4.687 0.0 0.003 4.696 0.0 0.003 4.704 0.0 0.003 4.712 0.0 0.003 4.719 0.0 0.003 4.725 0.0 0.003 4.731 0.0 0.003 4.736 0.0 0.003 4.741 0.0 0.003 4.746 0.0 0.004 4.75 0.0 0.004 4.754 0.0 0.004 4.757 0.0 0.004 4.76 0.0 0.004 4.763 0.0 0.004 4.766 0.0 0.004 4.769 0.0 0.004 4.771 0.0 0.004 4.773 0.0 0.004 4.775 0.0 0.004 4.777 0.0 0.004 4.779 0.0 0.004 4.78 0.0 0.004 4.782 0.0 0.004 4.783 0.0 0.004 4.784 0.0 0.004 4.786 0.0 0.004 4.787 0.0 0.004 4.788 0.0 0.004 4.789 0.0 0.004 4.789 0.0 0.004 4.79 0.0 0.004 4.791 0.0 0.004 4.791 0.0 0.004 4.792 0.0 0.004 4.793 0.0 0.004 4.793 0.0 0.004 4.794 0.0 0.004 4.794 0.0 0.004 4.794 0.0 0.004 4.795 0.0 0.004 4.795 0.0 0.004 4.795 0.0 0.004 4.796 0.0 0.004 4.796 0.0 0.004 4.796 0.0 0.004 4.796 0.0 0.004 4.796 0.0 0.004 4.797 0.0 0.004 4.797 0.0 0.004 4.797 0.0 0.004 4.797 0.0 0.004 4.797 0.0 0.004 4.797 0.0 0.004 4.796 0.0 0.004 4.812 0.0 0.003 4.748 0.0 0.004 4.898 0.0 -0.009 4.89 0.0 -0.003 4.753 0.0 0.004 4.809 0.0 0.003 4.794 0.0 0.002 4.796 0.0 0.002 4.795 0.0 0.002 4.795 0.0 0.002 4.795 0.0 0.002 4.795 0.0 0.002 4.795 0.0 0.002 4.795 0.0 0.002 4.794 0.0 0.002 4.794 0.0 0.002 4.794 0.0 0.002 4.794 0.0 0.002 4.794 0.0 0.002 4.793 0.0 0.002 4.793 0.0 0.002 4.793 0.0 0.002 4.792 0.0 0.002 4.792 0.0 0.002 4.791 0.0 0.002 4.791 0.0 0.002 4.79 0.0 0.002 4.789 0.0 0.002 4.789 0.0 0.002 4.788 0.0 0.002 4.787 0.0 0.002 4.786 0.0 0.002 4.785 0.0 0.002 4.784 0.0 0.002 4.783 0.0 0.002 4.782 0.0 0.002 4.781 0.0 0.002 4.779 0.0 0.002 4.778 0.0 0.002 4.776 0.0 0.002 4.774 0.0 0.002 4.772 0.0 0.002 4.77 0.0 0.002 4.768 0.0 0.002 4.765 0.0 0.002 4.763 0.0 0.002 4.76 0.0 0.002 4.757 0.0 0.002 4.753 0.0 0.003 4.749 0.0 0.003 4.745 0.0 0.003 4.741 0.0 0.003 4.736 0.0 0.003 4.731 0.0 0.003 4.725 0.0 0.003 4.719 0.0 0.003 4.712 0.0 0.003 4.704 0.0 0.003 4.696 0.0 0.003 4.687 0.0 0.003 4.678 0.0 0.003 4.667 0.0 0.003 4.656 0.0 0.004 4.643 0.0 0.004 4.629 0.0 0.004 4.614 0.0 0.004 4.597 0.0 0.004 4.578 0.0 0.005 4.558 0.0 0.005 4.535 0.0 0.005 4.51 0.0 0.005 4.483 0.0 0.006 4.452 0.0 0.006 4.418 0.0 0.007 4.379 0.0 0.007 4.336 0.0 0.008 4.288 0.0 0.009 4.233 0.0 0.01 4.171 0.0 0.011 4.1 0.0 0.012 4.019 0.0 0.013 3.925 0.0 0.015 3.817 0.0 0.017 3.69 0.0 0.02 3.541 0.0 0.023 3.362 0.0 0.028 3.145 0.0 0.034 2.877 0.0 0.042 2.532 0.0 0.054 2.085 0.0 0.075 1.477 0.0 0.11 -0.183 0.0 0.289 -0.108 0.0 2.464 1.555 0.0 3.084 2.768 0.0 3.937 4.359 0.0 4.611 5.812 0.0 4.788 7.037 0.0 4.541 8.037 0.0 4.01 8.828 0.0 3.297 9.42 0.0 2.464 9.82 0.0 1.552 10.03 0.0 0.595 10.051 0.0 -0.379 9.884 0.0 -1.342 9.527 0.0 -2.267 8.978 0.0 -3.121 8.23 0.0 -3.864 7.272 0.0 -4.436 6.088 0.0 -4.744 4.669 0.0 -4.65 3.07 0.0 -4.064 1.819 0.0 -3.252 -0.343 0.0 -2.797 -0.539 0.0 -0.328 1.345 0.0 -0.111 1.975 0.0 -0.078 2.456 0.0 -0.055 2.818 0.0 -0.041 3.098 0.0 -0.032 3.324 0.0 -0.026 3.509 0.0 -0.021 3.664 0.0 -0.018 3.795 0.0 -0.015 3.906 0.0 -0.012 4.002 0.0 -0.01 4.085 0.0 -0.009 4.158 0.0 -0.007 4.221 0.0 -0.006 4.277 0.0 -0.005 4.327 0.0 -0.004 4.371 0.0 -0.004 4.41 0.0 -0.003 4.446 0.0 -0.003 4.477 0.0 -0.002 4.505 0.0 -0.002 4.531 0.0 -0.001 4.554 0.0 -0.001 4.575 0.0 -0.001 4.593 0.0 -0.0 4.611 0.0 -0.0 4.626 0.0 -0.0 4.64 0.0 0.0 4.653 0.0 0.0 4.665 0.0 0.0 4.676 0.0 0.001 4.686 0.0 0.001 4.695 0.0 0.001 4.703 0.0 0.001 4.71 0.0 0.001 4.717 0.0 0.001 4.724 0.0 0.001 4.73 0.0 0.001 4.735 0.0 0.001 4.74 0.0 0.001 4.744 0.0 0.001 4.749 0.0 0.001 4.752 0.0 0.002 4.756 0.0 0.002 4.759 0.0 0.002 4.762 0.0 0.002 4.765 0.0 0.002 4.768 0.0 0.002 4.77 0.0 0.002 4.772 0.0 0.002 4.774 0.0 0.002 4.776 0.0 0.002 4.778 0.0 0.002 4.779 0.0 0.002 4.781 0.0 0.002 4.782 0.0 0.002 4.783 0.0 0.002 4.784 0.0 0.002 4.785 0.0 0.002 4.786 0.0 0.002 4.787 0.0 0.002 4.788 0.0 0.002 4.789 0.0 0.002 4.79 0.0 0.002 4.79 0.0 0.002 4.791 0.0 0.002 4.791 0.0 0.002 4.792 0.0 0.002 4.792 0.0 0.002 4.793 0.0 0.002 4.793 0.0 0.002 4.793 0.0 0.002 4.794 0.0 0.002 4.794 0.0 0.002 4.794 0.0 0.002 4.795 0.0 0.002 4.795 0.0 0.002 4.795 0.0 0.002 4.795 0.0 0.002 4.795 0.0 0.002 4.796 0.0 0.002 4.796 0.0 0.002 4.796 0.0 0.002 4.796 0.0 0.002 4.796 0.0 0.002 4.795 0.0 0.002 4.809 0.0 0.001 4.755 0.0 0.002 4.889 0.0 -0.004 4.89 0.0 -0.003 4.753 0.0 0.004 4.809 0.0 0.003 4.794 0.0 0.002 4.796 0.0 0.002 4.795 0.0 0.002 4.795 0.0 0.002 4.795 0.0 0.002 4.795 0.0 0.002 4.795 0.0 0.002 4.795 0.0 0.002 4.794 0.0 0.002 4.794 0.0 0.002 4.794 0.0 0.002 4.794 0.0 0.002 4.794 0.0 0.002 4.793 0.0 0.002 4.793 0.0 0.002 4.793 0.0 0.002 4.792 0.0 0.002 4.792 0.0 0.002 4.791 0.0 0.002 4.791 0.0 0.002 4.79 0.0 0.002 4.789 0.0 0.002 4.789 0.0 0.002 4.788 0.0 0.002 4.787 0.0 0.002 4.786 0.0 0.002 4.785 0.0 0.002 4.784 0.0 0.002 4.783 0.0 0.002 4.782 0.0 0.002 4.781 0.0 0.002 4.779 0.0 0.002 4.778 0.0 0.002 4.776 0.0 0.002 4.774 0.0 0.002 4.772 0.0 0.002 4.77 0.0 0.002 4.768 0.0 0.002 4.765 0.0 0.002 4.763 0.0 0.002 4.76 0.0 0.002 4.757 0.0 0.002 4.753 0.0 0.003 4.749 0.0 0.003 4.745 0.0 0.003 4.741 0.0 0.003 4.736 0.0 0.003 4.731 0.0 0.003 4.725 0.0 0.003 4.719 0.0 0.003 4.712 0.0 0.003 4.704 0.0 0.003 4.696 0.0 0.003 4.687 0.0 0.003 4.678 0.0 0.003 4.667 0.0 0.003 4.656 0.0 0.004 4.643 0.0 0.004 4.629 0.0 0.004 4.614 0.0 0.004 4.597 0.0 0.004 4.578 0.0 0.005 4.558 0.0 0.005 4.535 0.0 0.005 4.51 0.0 0.005 4.483 0.0 0.006 4.452 0.0 0.006 4.418 0.0 0.007 4.379 0.0 0.007 4.336 0.0 0.008 4.288 0.0 0.009 4.233 0.0 0.01 4.171 0.0 0.011 4.1 0.0 0.012 4.019 0.0 0.013 3.925 0.0 0.015 3.817 0.0 0.017 3.69 0.0 0.02 3.541 0.0 0.023 3.362 0.0 0.028 3.145 0.0 0.034 2.877 0.0 0.042 2.532 0.0 0.054 2.085 0.0 0.075 1.477 0.0 0.11 -0.183 0.0 0.289 -0.108 0.0 2.464 1.555 0.0 3.084 2.768 0.0 3.937 4.359 0.0 4.611 5.812 0.0 4.788 7.037 0.0 4.541 8.037 0.0 4.01 8.828 0.0 3.297 9.42 0.0 2.464 9.82 0.0 1.552 10.03 0.0 0.595 10.051 0.0 -0.379 9.884 0.0 -1.342 9.527 0.0 -2.267 8.978 0.0 -3.121 8.23 0.0 -3.864 7.272 0.0 -4.436 6.088 0.0 -4.744 4.669 0.0 -4.65 3.07 0.0 -4.064 1.819 0.0 -3.252 -0.343 0.0 -2.797 -0.539 0.0 -0.328 1.345 0.0 -0.111 1.975 0.0 -0.078 2.456 0.0 -0.055 2.818 0.0 -0.041 3.098 0.0 -0.032 3.324 0.0 -0.026 3.509 0.0 -0.021 3.664 0.0 -0.018 3.795 0.0 -0.015 3.906 0.0 -0.012 4.002 0.0 -0.01 4.085 0.0 -0.009 4.158 0.0 -0.007 4.221 0.0 -0.006 4.277 0.0 -0.005 4.327 0.0 -0.004 4.371 0.0 -0.004 4.41 0.0 -0.003 4.446 0.0 -0.003 4.477 0.0 -0.002 4.505 0.0 -0.002 4.531 0.0 -0.001 4.554 0.0 -0.001 4.575 0.0 -0.001 4.593 0.0 -0.0 4.611 0.0 -0.0 4.626 0.0 -0.0 4.64 0.0 0.0 4.653 0.0 0.0 4.665 0.0 0.0 4.676 0.0 0.001 4.686 0.0 0.001 4.695 0.0 0.001 4.703 0.0 0.001 4.71 0.0 0.001 4.717 0.0 0.001 4.724 0.0 0.001 4.73 0.0 0.001 4.735 0.0 0.001 4.74 0.0 0.001 4.744 0.0 0.001 4.749 0.0 0.001 4.752 0.0 0.002 4.756 0.0 0.002 4.759 0.0 0.002 4.762 0.0 0.002 4.765 0.0 0.002 4.768 0.0 0.002 4.77 0.0 0.002 4.772 0.0 0.002 4.774 0.0 0.002 4.776 0.0 0.002 4.778 0.0 0.002 4.779 0.0 0.002 4.781 0.0 0.002 4.782 0.0 0.002 4.783 0.0 0.002 4.784 0.0 0.002 4.785 0.0 0.002 4.786 0.0 0.002 4.787 0.0 0.002 4.788 0.0 0.002 4.789 0.0 0.002 4.79 0.0 0.002 4.79 0.0 0.002 4.791 0.0 0.002 4.791 0.0 0.002 4.792 0.0 0.002 4.792 0.0 0.002 4.793 0.0 0.002 4.793 0.0 0.002 4.793 0.0 0.002 4.794 0.0 0.002 4.794 0.0 0.002 4.794 0.0 0.002 4.795 0.0 0.002 4.795 0.0 0.002 4.795 0.0 0.002 4.795 0.0 0.002 4.795 0.0 0.002 4.796 0.0 0.002 4.796 0.0 0.002 4.796 0.0 0.002 4.796 0.0 0.002 4.796 0.0 0.002 4.795 0.0 0.002 4.809 0.0 0.001 4.755 0.0 0.002 4.889 0.0 -0.004 4.878 0.0 -0.002 4.758 0.0 0.002 4.806 0.0 0.002 4.794 0.0 0.002 4.794 0.0 0.002 4.794 0.0 0.002 4.794 0.0 0.002 4.794 0.0 0.002 4.794 0.0 0.002 4.794 0.0 0.002 4.794 0.0 0.002 4.793 0.0 0.002 4.793 0.0 0.002 4.793 0.0 0.002 4.793 0.0 0.002 4.792 0.0 0.002 4.792 0.0 0.002 4.792 0.0 0.002 4.791 0.0 0.002 4.791 0.0 0.002 4.791 0.0 0.002 4.79 0.0 0.002 4.79 0.0 0.002 4.789 0.0 0.002 4.788 0.0 0.002 4.788 0.0 0.002 4.787 0.0 0.002 4.786 0.0 0.002 4.785 0.0 0.002 4.784 0.0 0.002 4.783 0.0 0.002 4.782 0.0 0.002 4.781 0.0 0.002 4.78 0.0 0.